 Gaussian 09, Revision B.01,
 Gaussian 09:  EM64L-G09RevB.01 12-Aug-2010

 --------------------------------------------------
 #opt freq ub3lyp/6-311+g(2d,2p) test pop=Hirshfeld
 --------------------------------------------------

 ----
 agua
 ----
 Symbolic Z-matrix:
 Charge =  0 Multiplicity = 1

 SCF Done:  E(UB3LYP) =  -76.4615360811     A.U. after   10 cycles
 SCF Done:  E(UB3LYP) =  -76.4619734698     A.U. after    8 cycles
 SCF Done:  E(UB3LYP) =  -76.4619829351     A.U. after    6 cycles
 Optimization completed.
    -- Stationary point found.
 Normal termination of Gaussian 09 at Thu Sep 29 16:22:46 2016.

 ----------------------------------------------------------------------
 #N Geom=AllCheck Guess=TCheck SCRF=Check Test GenChk UB3LYP/6-311+G(2d
 ,2p) Freq
 ----------------------------------------------------------------------

 agua
 ----
 Redundant internal coordinates taken from checkpoint file:
 aguaopt.chk
 Charge =  0 Multiplicity = 1

                         Standard orientation:
 ---------------------------------------------------------------------
 Center     Atomic      Atomic             Coordinates (Angstroms)
 Number     Number       Type             X           Y           Z
 ---------------------------------------------------------------------
      1          8           0        0.000000    0.000000    0.116780
      2          1           0        0.000000    0.762866   -0.467119
      3          1           0        0.000000   -0.762866   -0.467119
 ---------------------------------------------------------------------

 SCF Done:  E(UB3LYP) =  -76.4619829351     A.U. after    1 cycles

 The electronic state is 1-A1.
 Alpha  occ. eigenvalues --  -19.13316  -1.02199  -0.54253  -0.39904  -0.32333
 Alpha virt. eigenvalues --    0.02049   0.09553   0.14865   0.15150   0.17356
 Alpha virt. eigenvalues --    0.20583   0.46546   0.47852   0.59675   0.65328
 Alpha virt. eigenvalues --    0.73544   0.81394   0.85828   0.98637   1.01655

  Beta  occ. eigenvalues --  -19.13316  -1.02199  -0.54253  -0.39904  -0.32333
  Beta virt. eigenvalues --    0.02049   0.09553   0.14865   0.15150   0.17356
  Beta virt. eigenvalues --    0.20583   0.46546   0.47852   0.59675   0.65328
  Beta virt. eigenvalues --    0.73544   0.81394   0.85828   0.98637   1.01655

 Mulliken atomic charges:
              1
     1  O   -0.459739
     2  H    0.229869
     3  H    0.229869
 Sum of Mulliken atomic charges =   0.00000

 Dipole moment (field-independent basis, Debye):
    X=              0.0000    Y=              0.0000    Z=             -1.9602  Tot=              1.9602
 Quadrupole moment (field-independent basis, Debye-Ang):
   XX=             -7.8028   YY=             -4.4258   ZZ=             -6.4882
   XY=              0.0000   XZ=              0.0000   YZ=              0.0000

  Exact polarizability:   7.905   0.000   8.935   0.000   0.000   7.958
 Approx polarizability:   8.589   0.000  11.296   0.000   0.000   9.794

                     1                      2                      3
                    A1                     A1                     B2
 Frequencies --  1638.8651              3823.4381              3925.1914
 Red. masses --     1.0836                 1.0443                 1.0825
 Frc consts  --     1.7147                 8.9951                 9.8264
 IR Inten    --    71.2789                 8.0474                62.5305

 - Thermochemistry -
 -------------------
 Temperature   298.150 Kelvin.  Pressure   1.00000 Atm.
 Atom     1 has atomic number  8 and mass  15.99491

 Molecular mass:    18.01056 amu.
 Principal axes and moments of inertia in atomic units:
                           1         2         3
     Eigenvalues --     2.17943   4.18899   6.36843
           X            0.00000   0.00000   1.00000
           Y            1.00000   0.00000   0.00000
           Z            0.00000   1.00000   0.00000
 This molecule is an asymmetric top.
 Rotational symmetry number  2.
 Rotational temperatures (Kelvin)     39.74145    20.67652    13.60050
 Rotational constants (GHZ):         828.07839   430.82922   283.38884
 Zero-point vibrational energy      56149.7 (Joules/Mol)
                                   13.42010 (Kcal/Mol)
 Vibrational temperatures:   2357.96  5501.07  5647.47
          (Kelvin)

 Zero-point correction=                           0.021386 (Hartree/Particle)
 Thermal correction to Energy=                    0.024222
 Thermal correction to Enthalpy=                  0.025166
 Thermal correction to Gibbs Free Energy=         0.003748
 Sum of electronic and zero-point Energies=            -76.440597
 Sum of electronic and thermal Energies=               -76.437761
 Sum of electronic and thermal Enthalpies=             -76.436817
 Sum of electronic and thermal Free Energies=          -76.458235

                     E (Thermal)             CV                S
                      KCal/Mol        Cal/Mol-Kelvin    Cal/Mol-Kelvin
 Total                   15.199              6.007             45.077
 Electronic               0.000              0.000              0.000
 Translational            0.889              2.981             34.608
 Rotational               0.889              2.981             10.462
 Vibrational             13.422              0.046              0.007

 Optimization completed.
    -- Stationary point found.
 Normal termination of Gaussian 09 at Thu Sep 29 16:22:52 2016.
